ITEM: TIMESTEP
0
ITEM: NUMBER OF ATOMS
1845
ITEM: BOX BOUNDS ss ss ss
87.3631 145.811
-14.487 96.9739
-42.445 50.911
ITEM: ATOMS id type xs ys zs
1 1 0.207807 0.140336 0.956253
2 3 0.193983 0.148815 0.93423
3 4 0.231315 0.134585 0.954572
4 1 0.212273 0.170975 0.938279
5 3 0.252924 0.174528 0.939961
6 4 0.197234 0.181238 0.944289
7 1 0.254892 0.186631 0.913707
8 3 0.23703 0.205983 0.911329
9 4 0.256586 0.182961 0.897693
10 1 0.274602 0.218633 0.921815
11 3 0.314997 0.222275 0.924933
12 4 0.270325 0.221836 0.937594
13 1 0.32054 0.2334 0.898593
14 3 0.3177 0.253093 0.909518
15 4 0.317306 0.237177 0.882632
16 1 0.361038 0.251541 0.922715
17 3 0.368737 0.272517 0.918998
18 4 0.379516 0.245692 0.932356
19 1 0.397326 0.269063 0.895722
20 3 0.396283 0.266004 0.870249
21 4 0.423059 0.26638 0.894372
22 1 0.35753 0.279928 0.865943
23 3 0.393768 0.288209 0.859548
24 4 0.338693 0.289581 0.867561
25 1 0.388567 0.285374 0.830348
26 3 0.371423 0.304681 0.826931
27 4 0.380183 0.278761 0.817119
28 1 0.412554 0.316874 0.825678
29 3 0.401125 0.31926 0.801095
30 4 0.437499 0.319942 0.822229
31 1 0.361774 0.332655 0.8081
32 3 0.366787 0.330197 0.782585
33 4 0.350875 0.34387 0.814731
34 1 0.398575 0.34884 0.780453
35 3 0.433085 0.355264 0.792172
36 4 0.389833 0.361302 0.776137
37 1 0.46123 0.341627 0.774894
38 3 0.485576 0.339393 0.754542
39 5 0.353376 0.331548 0.762615
40 1 0.476354 0.315295 0.750643
41 3 0.447628 0.321629 0.73374
42 4 0.473206 0.301998 0.754467
43 1 0.475619 0.31656 0.709874
44 3 0.492591 0.298607 0.700673
45 4 0.493652 0.324553 0.702719
46 1 0.451648 0.288711 0.691525
47 3 0.474678 0.294794 0.671537
48 4 0.427405 0.287563 0.685537
49 1 0.494952 0.272311 0.668141
50 3 0.473993 0.255049 0.660332
51 4 0.515842 0.266964 0.675736
52 1 0.48792 0.256978 0.631893
53 3 0.524996 0.249038 0.637388
54 4 0.488878 0.263267 0.61725
55 1 0.515859 0.226357 0.627341
56 3 0.555074 0.230745 0.633061
57 4 0.508366 0.21682 0.616447
58 1 0.564724 0.239654 0.605328
59 3 0.597881 0.249549 0.61484
60 4 0.560959 0.246445 0.591274
61 1 0.573723 0.261706 0.636049
62 3 0.581747 0.255857 0.660332
63 4 0.554578 0.269189 0.642819
64 1 0.621509 0.243655 0.652877
65 3 0.61576 0.236549 0.676668
66 5 0.509778 0.234307 0.64197
67 1 0.573706 0.226008 0.670423
68 3 0.574869 0.240542 0.689415
69 4 0.577641 0.212451 0.669148
70 1 0.591482 0.224509 0.709531
71 3 0.62784 0.234109 0.706093
72 4 0.60144 0.213447 0.716987
73 1 0.613861 0.255677 0.718508
74 3 0.607411 0.273486 0.73254
75 4 0.612304 0.26359 0.705193
76 1 0.587034 0.261338 0.754938
77 3 0.553397 0.249612 0.751071
78 5 0.459708 0.261498 0.745821
79 1 0.538033 0.251425 0.778814
80 3 0.519093 0.2704 0.775558
81 4 0.543337 0.244938 0.792868
82 1 0.484019 0.264694 0.794957
83 3 0.490965 0.261177 0.81999
84 4 0.461024 0.257839 0.794925
85 1 0.498699 0.285365 0.826471
86 3 0.459125 0.285975 0.83354
87 4 0.506005 0.298114 0.822786
88 1 0.468535 0.283633 0.862248
89 3 0.469716 0.304869 0.860341
90 5 0.33434 0.265672 0.847128
91 1 0.424239 0.308117 0.86815
92 3 0.437516 0.328277 0.868964
93 4 0.401604 0.306771 0.876205
94 1 0.461435 0.325747 0.894351
95 3 0.500564 0.329075 0.901056
96 4 0.456713 0.325594 0.910504
97 1 0.518289 0.319951 0.875595
98 3 0.518306 0.341357 0.872445
99 4 0.52077 0.313653 0.861102
100 1 0.565425 0.343573 0.876837
101 3 0.596153 0.330807 0.869221
102 4 0.569497 0.348598 0.892176
103 1 0.621646 0.349594 0.85732
104 3 0.652254 0.335203 0.859366
105 4 0.631604 0.362154 0.855424
106 1 0.652357 0.335337 0.889305
107 3 0.649842 0.314092 0.893687
108 4 0.660689 0.342748 0.902331
109 1 0.607873 0.315564 0.907805
110 3 0.571259 0.313043 0.896354
111 4 0.593895 0.319655 0.921023
112 1 0.586452 0.295655 0.877512
113 3 0.577265 0.280735 0.894972
114 4 0.601474 0.288451 0.867164
115 1 0.531617 0.279031 0.887045
116 3 0.531874 0.269969 0.863587
117 4 0.511154 0.286271 0.893151
118 1 0.496321 0.254233 0.869467
119 3 0.46679 0.249388 0.886574
120 4 0.512386 0.243332 0.868439
121 1 0.43317 0.244812 0.866254
122 3 0.437978 0.223639 0.869714
123 4 0.423179 0.243063 0.851279
124 1 0.423897 0.223765 0.897853
125 3 0.386821 0.228708 0.906915
126 4 0.437071 0.225765 0.911896
127 1 0.368737 0.206279 0.902342
128 3 0.386154 0.199855 0.924258
129 4 0.360524 0.196132 0.892144
130 1 0.344459 0.197065 0.938547
131 3 0.304731 0.192076 0.941536
132 4 0.340096 0.208064 0.947984
133 1 0.311096 0.167619 0.937583
134 3 0.317854 0.156423 0.959135
135 4 0.318316 0.156162 0.929281
136 1 0.282181 0.166722 0.974238
137 3 0.247569 0.156324 0.967876
138 4 0.272549 0.177982 0.981469
139 1 0.254447 0.13786 0.987275
140 3 0.253267 0.117064 0.98073
141 5 0.122874 0.13467 0.95936
142 1 0.299462 0.116525 0.972621
143 3 0.334518 0.127767 0.973306
144 4 0.294106 0.114821 0.95665
145 1 0.361551 0.108056 0.980837
146 3 0.382938 0.089906 0.984672
147 4 0.367043 0.109868 0.99684
148 1 0.384683 0.0836796 0.956146
149 3 0.396026 0.0954236 0.936062
150 5 0.27102 0.0753239 0.927709
151 1 0.398764 0.0762241 0.916802
152 3 0.359618 0.0815533 0.912036
153 4 0.40855 0.0637982 0.913932
154 1 0.364306 0.0811944 0.882868
155 3 0.391047 0.0823697 0.863651
156 5 0.223469 0.0834441 0.853845
157 1 0.368412 0.101435 0.850069
158 3 0.343655 0.117907 0.856346
159 4 0.360833 0.094033 0.836743
160 1 0.36126 0.133195 0.835404
161 3 0.377925 0.131293 0.812031
162 4 0.377155 0.142705 0.842442
163 1 0.34191 0.142068 0.797828
164 3 0.317717 0.158244 0.790212
165 4 0.323329 0.134047 0.791529
166 1 0.351457 0.175685 0.793864
167 3 0.360867 0.17747 0.768799
168 4 0.373647 0.182548 0.798181
169 1 0.316092 0.184235 0.760926
170 3 0.314073 0.204493 0.769463
171 4 0.293337 0.17791 0.757852
172 1 0.304372 0.214174 0.743016
173 3 0.279752 0.212792 0.722407
174 4 0.32492 0.219413 0.734854
175 1 0.243651 0.224823 0.735411
176 3 0.258947 0.244157 0.728791
177 4 0.223394 0.221961 0.745715
178 1 0.215438 0.254843 0.727463
179 3 0.201819 0.255875 0.751746
180 4 0.196652 0.255561 0.716001
181 1 0.200895 0.280915 0.752346
182 3 0.168336 0.286845 0.766453
183 4 0.210904 0.293565 0.750653
184 1 0.136068 0.278465 0.747793
185 3 0.1257 0.257902 0.743166
186 4 0.125734 0.284782 0.734704
187 1 0.0947664 0.256808 0.768124
188 3 0.0970762 0.235554 0.764504
189 4 0.0720795 0.263007 0.77077
190 1 0.0845693 0.235231 0.737639
191 3 0.115058 0.229219 0.721646
192 4 0.070266 0.23855 0.724495
193 1 0.147925 0.227802 0.744184
194 3 0.162108 0.208468 0.737499
195 4 0.156582 0.223872 0.758944
196 1 0.16435 0.213268 0.708674
197 3 0.200929 0.219593 0.717533
198 4 0.160021 0.218077 0.693507
199 1 0.225122 0.200519 0.705943
200 3 0.233728 0.207983 0.682538
201 4 0.227671 0.187303 0.701969
202 1 0.265448 0.224617 0.691354
203 3 0.299188 0.212927 0.68724
204 4 0.27722 0.234549 0.699826
205 1 0.293559 0.214407 0.655834
206 3 0.328958 0.203982 0.653199
207 4 0.285364 0.221701 0.642851
208 1 0.356641 0.221916 0.661072
209 3 0.355477 0.216973 0.686105
210 4 0.368446 0.234037 0.65834
211 1 0.394178 0.201802 0.684166
212 3 0.419329 0.216551 0.694663
213 4 0.408704 0.191834 0.677321
214 1 0.420202 0.204242 0.721336
215 3 0.43755 0.184711 0.723264
216 4 0.405624 0.201811 0.734757
217 1 0.480409 0.192265 0.714094
218 3 0.49384 0.198482 0.737371
219 4 0.49384 0.19632 0.700823
220 1 0.531189 0.183499 0.737242
221 3 0.526091 0.162218 0.73991
222 5 0.418489 0.186035 0.724726
223 1 0.540839 0.162461 0.768799
224 3 0.501932 0.160218 0.77664
225 4 0.54965 0.166946 0.783281
226 1 0.499229 0.136057 0.768724
227 3 0.459142 0.135393 0.763272
228 4 0.49295 0.134846 0.784577
229 1 0.461435 0.151964 0.741495
230 3 0.474421 0.143997 0.718979
231 4 0.464343 0.165215 0.737307
232 1 0.437123 0.128843 0.715519
233 3 0.399585 0.137232 0.713098
234 4 0.434043 0.116005 0.721143
235 1 0.397001 0.133024 0.68363
236 3 0.366581 0.147352 0.682067
237 4 0.37825 0.123389 0.684766
238 1 0.389816 0.165403 0.695777
239 3 0.39334 0.179202 0.715144
240 5 0.264369 0.172167 0.673976
241 1 0.372056 0.164434 0.735079
242 3 0.411527 0.166902 0.741677
243 4 0.352107 0.156808 0.740745
244 1 0.407233 0.153121 0.766539
245 3 0.377925 0.142947 0.779586
246 4 0.412126 0.164093 0.776051
247 1 0.404632 0.123819 0.787459
248 3 0.440425 0.11343 0.78989
249 4 0.393768 0.114067 0.778054
250 1 0.442598 0.116337 0.819422
251 3 0.424445 0.0992725 0.830166
252 4 0.456525 0.126986 0.824778
253 1 0.431579 0.107096 0.85822
254 3 0.418559 0.125649 0.868868
255 4 0.450553 0.0983933 0.862848
256 1 0.42477 0.117171 0.897082
257 3 0.438423 0.101758 0.912935
258 4 0.399653 0.115888 0.901592
259 1 0.470366 0.116489 0.926282
260 3 0.439894 0.119683 0.943249
261 4 0.487561 0.126672 0.929003
262 1 0.452641 0.100654 0.961384
263 3 0.436301 0.115233 0.977398
264 4 0.464977 0.0890088 0.965208
265 1 0.477244 0.120293 0.991324
266 3 0.48378 0.141628 0.990788
267 4 0.501231 0.119001 0.997858
268 1 0.456045 0.144966 0.966847
269 3 0.419449 0.138587 0.957475
270 4 0.468997 0.145378 0.952569
271 1 0.396317 0.158414 0.96885
272 3 0.377685 0.176869 0.962263
273 4 0.384649 0.158486 0.983579
274 1 0.41731 0.185715 0.948498
275 3 0.456302 0.185141 0.93995
276 4 0.424513 0.195719 0.959189
277 1 0.443607 0.179238 0.911714
278 3 0.424821 0.19484 0.898378
279 4 0.436404 0.167951 0.903584
280 1 0.465267 0.203273 0.886103
281 3 0.481607 0.18847 0.870721
282 4 0.482069 0.212505 0.892058
283 1 0.480375 0.202484 0.846598
284 3 0.492249 0.219333 0.832148
285 4 0.459604 0.200833 0.836829
286 1 0.539077 0.214604 0.836518
287 3 0.565168 0.203497 0.821961
288 4 0.559009 0.214353 0.847059
289 1 0.539949 0.207068 0.796639
290 3 0.506552 0.196248 0.788755
291 4 0.552559 0.195037 0.797431
292 1 0.491855 0.214739 0.770738
293 3 0.484635 0.235778 0.767021
294 4 0.470349 0.213384 0.780057
295 1 0.491342 0.234576 0.73781
296 3 0.457996 0.225344 0.727698
297 5 0.378008 0.237339 0.714438
298 1 0.437533 0.246248 0.720382
299 3 0.443402 0.259095 0.699923
300 4 0.422956 0.256036 0.727559
301 1 0.445386 0.240273 0.680503
302 3 0.405265 0.23855 0.675393
303 4 0.455327 0.228493 0.674783
304 1 0.405881 0.255327 0.653466
305 3 0.419911 0.244552 0.632739
306 4 0.4066 0.269036 0.651281
307 1 0.377565 0.242722 0.620057
308 3 0.355392 0.259131 0.611016
309 4 0.357684 0.233687 0.621524
310 1 0.377651 0.260226 0.585072
311 3 0.340832 0.250779 0.587043
312 4 0.391321 0.257104 0.5715
313 1 0.318778 0.266524 0.569272
314 3 0.301361 0.249047 0.558614
315 4 0.310651 0.278304 0.562396
316 1 0.336281 0.246248 0.538476
317 3 0.32001 0.226591 0.540758
318 4 0.359652 0.246957 0.530967
319 1 0.344476 0.220714 0.565041
320 3 0.327966 0.214156 0.587247
321 4 0.367745 0.217592 0.571833
322 1 0.289983 0.228726 0.585597
323 3 0.281103 0.210172 0.597433
324 4 0.273028 0.238721 0.581955
325 1 0.245738 0.20417 0.578795
326 3 0.250204 0.184083 0.587418
327 4 0.229947 0.203255 0.565652
328 1 0.29373 0.181059 0.577103
329 3 0.2913 0.170419 0.599319
330 4 0.316862 0.182306 0.569519
331 1 0.311661 0.188443 0.615226
332 3 0.291557 0.178152 0.633875
333 4 0.319103 0.200806 0.620378
334 1 0.248698 0.185222 0.624395
335 3 0.236209 0.166013 0.633285
336 4 0.229091 0.192758 0.617646
337 1 0.243446 0.154072 0.608167
338 3 0.254772 0.137914 0.623752
339 4 0.247518 0.150752 0.59241
340 1 0.298093 0.147146 0.628562
341 3 0.299906 0.142552 0.653788
342 4 0.320882 0.153704 0.626334
343 1 0.264234 0.157598 0.660697
344 3 0.246868 0.143171 0.676068
345 4 0.252001 0.169683 0.661372
346 1 0.218329 0.134173 0.65472
347 3 0.22223 0.113125 0.65985
348 4 0.197884 0.135788 0.644158
349 1 0.256979 0.109366 0.64058
350 3 0.278143 0.0953429 0.654848
351 4 0.2726 0.110119 0.627458
352 1 0.28882 0.111743 0.676004
353 3 0.282575 0.107042 0.700769
354 4 0.30586 0.122025 0.678971
355 1 0.23549 0.110487 0.699366
356 3 0.236927 0.118077 0.723489
357 4 0.23821 0.0981331 0.706328
358 1 0.248117 0.141521 0.71478
359 3 0.218757 0.154108 0.705161
360 4 0.26668 0.149496 0.708117
361 1 0.191981 0.153857 0.729883
362 3 0.169893 0.146078 0.749604
363 4 0.173298 0.147917 0.720982
364 1 0.193641 0.160648 0.770738
365 3 0.164076 0.15566 0.787587
366 4 0.207773 0.171576 0.774787
367 1 0.131004 0.170212 0.774455
368 3 0.094407 0.16369 0.765725
369 4 0.124554 0.183643 0.775205
370 1 0.113022 0.15269 0.741399
371 3 0.0761858 0.162272 0.740424
372 4 0.102004 0.141207 0.747344
373 1 0.085305 0.173604 0.714534
374 3 0.0979487 0.165969 0.691921
375 4 0.0951429 0.186379 0.712852
376 1 0.0541148 0.160711 0.682174
377 3 0.0718057 0.176151 0.668302
378 4 0.0288102 0.163896 0.680545
379 1 0.0920118 0.159661 0.649
380 3 0.0968709 0.177731 0.635256
381 4 0.0955705 0.148196 0.639702
382 1 0.0518221 0.178933 0.626505
383 3 0.0516682 0.200456 0.626891
384 4 0.0273559 0.175595 0.622081
385 1 0.0520959 0.20208 0.656562
386 3 0.0816949 0.216856 0.653798
387 4 0.0437466 0.199756 0.671912
388 1 0.116683 0.200743 0.660729
389 3 0.139507 0.196132 0.640162
390 4 0.129618 0.190165 0.667349
391 1 0.124109 0.215134 0.624245
392 3 0.120841 0.235464 0.632568
393 4 0.10883 0.208584 0.613415
394 1 0.121063 0.245225 0.605446
395 3 0.161287 0.249128 0.60446
396 5 0.00342185 0.245432 0.590219
397 1 0.157694 0.270732 0.619285
398 3 0.154974 0.263841 0.643537
399 4 0.149448 0.283759 0.618718
400 1 0.200929 0.269171 0.649728
401 3 0.224523 0.2861 0.643654
402 4 0.216362 0.258064 0.649278
403 1 0.232085 0.292874 0.671773
404 3 0.261958 0.284602 0.686555
405 4 0.222247 0.298706 0.68528
406 1 0.294089 0.285176 0.66436
407 3 0.324116 0.287303 0.681724
408 4 0.304783 0.285544 0.649342
409 1 0.318282 0.311598 0.685409
410 3 0.324201 0.316766 0.709895
411 4 0.315236 0.324823 0.681231
412 1 0.296467 0.299316 0.720907
413 3 0.275303 0.28122 0.715915
414 4 0.279358 0.308449 0.726499
415 1 0.289384 0.269817 0.741345
416 3 0.298435 0.275029 0.765746
417 4 0.305741 0.259948 0.735593
418 1 0.273233 0.255525 0.776822
419 3 0.269794 0.234136 0.774423
420 4 0.247843 0.256171 0.780828
421 1 0.311849 0.229327 0.787137
422 3 0.285261 0.225855 0.806086
423 4 0.334022 0.230377 0.795717
424 1 0.276604 0.202645 0.79891
425 3 0.309385 0.190542 0.804405
426 4 0.26035 0.196212 0.788562
427 1 0.28935 0.180216 0.828367
428 3 0.258844 0.169351 0.840192
429 4 0.2958 0.186083 0.84257
430 1 0.265123 0.148994 0.822379
431 3 0.28805 0.131042 0.824703
432 4 0.261086 0.144607 0.806975
433 1 0.296553 0.134648 0.853914
434 3 0.26189 0.124995 0.861798
435 4 0.306288 0.141843 0.866768
436 1 0.283293 0.102942 0.867207
437 3 0.312242 0.0983484 0.884764
438 4 0.287742 0.0922835 0.856806
439 1 0.280864 0.094042 0.906755
440 3 0.275252 0.0735953 0.899267
441 4 0.267981 0.101865 0.918066
442 1 0.260333 0.0659963 0.926175
443 3 0.251915 0.0699438 0.950748
444 4 0.281292 0.058146 0.928821
445 1 0.208817 0.0599403 0.949516
446 3 0.239545 0.0481873 0.959189
447 4 0.186284 0.0543958 0.944331
448 1 0.217491 0.0418981 0.983975
449 3 0.222025 0.0210208 0.989781
450 4 0.200467 0.0434771 0.99624
451 1 0.227363 0.0132064 0.96222
452 3 0.248442 0.00179435 0.944738
453 4 0.205087 0.00793103 0.957089
454 1 0.275697 0.0207337 0.936801
455 3 0.279786 0.022546 0.9115
456 5 0.185529 0.0265438 0.90533
457 1 0.234361 0.0267717 0.906616
458 3 0.237252 0.0479182 0.9106
459 4 0.208543 0.0246364 0.90713
460 1 0.251453 0.053373 0.883296
461 3 0.210938 0.0563965 0.883768
462 4 0.258759 0.05113 0.86785
463 1 0.213778 0.0809522 0.886499
464 3 0.236825 0.0985996 0.883393
465 4 0.206952 0.0826478 0.902234
466 1 0.209552 0.108155 0.861905
467 3 0.17364 0.116965 0.868728
468 4 0.203872 0.106719 0.845955
469 1 0.193299 0.136873 0.881379
470 3 0.190664 0.145863 0.858038
471 4 0.207585 0.141646 0.893858
472 1 0.17169 0.167216 0.868075
473 3 0.209279 0.175523 0.865076
474 4 0.161766 0.177443 0.877608
475 1 0.206935 0.17808 0.835993
476 3 0.198722 0.19815 0.828227
477 4 0.200485 0.173864 0.82089
478 1 0.220417 0.209212 0.850872
479 3 0.249605 0.210513 0.832855
480 4 0.231161 0.212433 0.865633
481 1 0.239117 0.234845 0.826556
482 3 0.252856 0.247504 0.84573
483 4 0.22117 0.241592 0.817644
484 1 0.288375 0.25687 0.829449
485 3 0.267604 0.270355 0.814388
486 4 0.311643 0.254349 0.822647
487 1 0.281001 0.290784 0.829534
488 3 0.30586 0.287482 0.809428
489 4 0.293131 0.299755 0.839325
490 1 0.283037 0.302555 0.791433
491 3 0.319907 0.311885 0.795514
492 4 0.267296 0.312971 0.787373
493 1 0.340404 0.30006 0.772141
494 3 0.329249 0.300366 0.74744
495 4 0.352466 0.287751 0.770245
496 1 0.345725 0.322804 0.742395
497 3 0.386394 0.326276 0.742031
498 4 0.335802 0.3354 0.744184
499 1 0.390243 0.320408 0.712734
500 3 0.392313 0.340415 0.703436
501 4 0.384785 0.316335 0.697427
502 1 0.424239 0.348077 0.723253
503 3 0.443248 0.36201 0.707485
504 4 0.442272 0.348544 0.735132
505 1 0.442358 0.346857 0.683952
506 3 0.42631 0.359086 0.665196
507 4 0.448671 0.335293 0.676068
508 1 0.381261 0.356278 0.67595
509 3 0.378216 0.373073 0.692071
510 4 0.360542 0.349683 0.682024
511 1 0.378797 0.390298 0.670144
512 3 0.359789 0.402922 0.687272
513 4 0.377754 0.394721 0.654655
514 1 0.31746 0.391617 0.684166
515 3 0.296142 0.387912 0.705686
516 4 0.296998 0.387481 0.6752
517 1 0.332038 0.37833 0.720586
518 3 0.357582 0.368596 0.736964
519 4 0.316588 0.367241 0.72246
520 1 0.396334 0.378985 0.725588
521 3 0.379601 0.390451 0.744516
522 4 0.413358 0.384341 0.715048
523 1 0.417909 0.392846 0.760444
524 3 0.424 0.409417 0.744312
525 4 0.43832 0.388603 0.769485
526 1 0.419243 0.426939 0.7652
527 3 0.444189 0.43129 0.784749
528 4 0.398883 0.433462 0.771916
529 1 0.47709 0.442137 0.768231
530 3 0.478288 0.457802 0.750493
531 4 0.497399 0.433919 0.764482
532 1 0.498801 0.474113 0.769142
533 3 0.534081 0.473117 0.782114
534 4 0.489101 0.483246 0.780186
535 1 0.561592 0.471143 0.757905
536 3 0.584468 0.481936 0.774755
537 4 0.569702 0.469115 0.742609
538 1 0.575776 0.503872 0.762704
539 3 0.545202 0.512234 0.749025
540 4 0.600807 0.505882 0.758516
541 1 0.551241 0.535004 0.759705
542 3 0.580943 0.549027 0.765071
543 4 0.53278 0.53635 0.77137
544 1 0.566127 0.565777 0.744291
545 3 0.592937 0.574713 0.760412
546 4 0.548829 0.573358 0.736118
547 1 0.558513 0.583236 0.7786
548 3 0.52426 0.573125 0.785659
549 4 0.553774 0.596523 0.775804
550 1 0.530556 0.576507 0.81412
551 3 0.523131 0.583819 0.837643
552 4 0.540651 0.565598 0.821683
553 1 0.515415 0.607056 0.829363
554 3 0.477398 0.614664 0.832148
555 4 0.536202 0.615113 0.831409
556 1 0.477928 0.628158 0.807329
557 3 0.464823 0.634187 0.830691
558 5 0.342988 0.598721 0.772539
559 1 0.441947 0.654194 0.820954
560 3 0.407062 0.643176 0.818062
561 4 0.438132 0.665848 0.812942
562 1 0.389987 0.649475 0.844777
563 3 0.350173 0.652417 0.838939
564 4 0.38778 0.653682 0.860352
565 1 0.359635 0.665902 0.814367
566 3 0.342526 0.660034 0.792054
567 4 0.36783 0.678193 0.809182
568 1 0.37067 0.640063 0.788669
569 3 0.376847 0.655898 0.771959
570 5 0.248995 0.59597 0.765393
571 1 0.382989 0.641265 0.748875
572 3 0.414384 0.64131 0.732101
573 5 0.252868 0.613438 0.719099
574 1 0.444035 0.630374 0.750675
575 3 0.435018 0.610035 0.745951
576 4 0.457312 0.628194 0.764621
577 1 0.456713 0.609514 0.719697
578 3 0.492471 0.603647 0.730355
579 4 0.464686 0.613282 0.704625
580 1 0.481607 0.580051 0.731362
581 3 0.47064 0.568316 0.710817
582 4 0.471444 0.574121 0.745019
583 1 0.512284 0.556195 0.709949
584 3 0.530967 0.544263 0.727398
585 4 0.535056 0.558905 0.702676
586 1 0.500016 0.525763 0.725909
587 3 0.495499 0.513319 0.70515
588 4 0.477227 0.52378 0.733879
589 1 0.529581 0.497439 0.713141
590 3 0.521813 0.485946 0.73404
591 4 0.555433 0.495896 0.713312
592 1 0.49473 0.4696 0.719911
593 3 0.504585 0.457928 0.699269
594 4 0.469374 0.472659 0.721078
595 1 0.490367 0.436485 0.711566
596 3 0.452008 0.441958 0.705889
597 4 0.488998 0.426544 0.72276
598 1 0.45105 0.429693 0.680074
599 3 0.420031 0.425127 0.696206
600 4 0.451375 0.41803 0.671376
601 1 0.392279 0.443519 0.684862
602 3 0.38843 0.448588 0.660204
603 4 0.39103 0.455137 0.693324
604 1 0.342081 0.445466 0.659304
605 3 0.318521 0.460296 0.670637
606 4 0.323107 0.435929 0.658458
607 1 0.329694 0.478186 0.651688
608 3 0.295663 0.485112 0.663182
609 4 0.336418 0.485022 0.638009
610 1 0.266543 0.471923 0.646332
611 3 0.239442 0.473547 0.665378
612 4 0.256175 0.462494 0.636349
613 1 0.264507 0.460547 0.684873
614 3 0.292036 0.454491 0.702558
615 4 0.256877 0.447386 0.684991
616 1 0.305039 0.476975 0.709863
617 3 0.292344 0.49743 0.709124
618 4 0.328599 0.476598 0.702515
619 1 0.30829 0.503208 0.735721
620 3 0.335015 0.496668 0.753449
621 4 0.284388 0.506097 0.741452
622 1 0.348565 0.51959 0.760605
623 3 0.325006 0.533299 0.773384
624 4 0.363758 0.52989 0.755881
625 1 0.322131 0.518962 0.797785
626 3 0.352637 0.520649 0.815041
627 4 0.310993 0.507173 0.80298
628 1 0.335767 0.542531 0.826439
629 3 0.30314 0.547672 0.841274
630 4 0.338248 0.555666 0.821854
631 1 0.316502 0.533586 0.864337
632 3 0.327966 0.553701 0.869842
633 4 0.323534 0.52221 0.872295
634 1 0.323072 0.550821 0.89901
635 3 0.283584 0.555119 0.902652
636 5 0.22454 0.531172 0.87576
637 1 0.285877 0.553549 0.932988
638 3 0.272412 0.573224 0.926957
639 4 0.298623 0.557577 0.946377
640 1 0.228219 0.566064 0.922094
641 3 0.215506 0.57928 0.90352
642 5 0.0991796 0.54155 0.897331
643 1 0.251094 0.57369 0.884999
644 3 0.268323 0.555199 0.877523
645 4 0.271556 0.582249 0.884657
646 1 0.246611 0.555119 0.851022
647 3 0.225242 0.565858 0.833262
648 4 0.22969 0.544882 0.85325
649 1 0.258468 0.563507 0.812128
650 3 0.28858 0.549529 0.807404
651 4 0.264798 0.576893 0.811871
652 1 0.288768 0.553109 0.778515
653 3 0.290736 0.57142 0.764921
654 4 0.276723 0.542989 0.770395
655 1 0.333475 0.566387 0.753481
656 3 0.309813 0.559093 0.734265
657 5 0.237778 0.545083 0.733995
658 1 0.312619 0.57971 0.718304
659 3 0.346067 0.582079 0.703811
660 4 0.304817 0.592665 0.716901
661 1 0.333629 0.565086 0.684295
662 3 0.296741 0.561749 0.67429
663 4 0.352825 0.55607 0.687379
664 1 0.312157 0.55057 0.65036
665 3 0.344955 0.539158 0.643965
666 4 0.30675 0.560466 0.639777
667 1 0.320403 0.522991 0.627587
668 3 0.35996 0.520362 0.621181
669 4 0.302627 0.518639 0.616779
670 1 0.361568 0.540871 0.603978
671 3 0.401707 0.54411 0.607802
672 4 0.355272 0.552328 0.595966
673 1 0.397241 0.546183 0.637002
674 3 0.425369 0.535336 0.650553
675 4 0.388344 0.554132 0.649096
676 1 0.408242 0.513436 0.6454
677 3 0.415394 0.508178 0.621106
678 4 0.390089 0.503845 0.648721
679 1 0.461247 0.503657 0.625166
680 3 0.475276 0.485363 0.635471
681 4 0.483437 0.510628 0.626944
682 1 0.464959 0.471744 0.610952
683 3 0.477244 0.457344 0.628476
684 4 0.488707 0.469654 0.604707
685 1 0.437807 0.460843 0.645775
686 3 0.450947 0.455057 0.669052
687 4 0.432606 0.447691 0.64254
688 1 0.489768 0.468272 0.668698
689 3 0.512267 0.482187 0.682131
690 4 0.511959 0.462324 0.663578
691 1 0.484515 0.501324 0.676325
692 3 0.44951 0.506985 0.665078
693 4 0.50313 0.507191 0.667606
694 1 0.439449 0.523978 0.685816
695 3 0.45945 0.538485 0.699655
696 4 0.422648 0.520236 0.697695
697 1 0.446105 0.55764 0.682506
698 3 0.408687 0.565598 0.678307
699 4 0.45466 0.563498 0.668538
700 1 0.399842 0.570747 0.706232
701 3 0.423144 0.584465 0.7196
702 4 0.387164 0.561246 0.715101
703 1 0.387318 0.600157 0.725074
704 3 0.36162 0.590844 0.741516
705 4 0.372484 0.609541 0.717704
706 1 0.382133 0.600776 0.765789
707 3 0.352894 0.616001 0.764707
708 4 0.401621 0.605307 0.775622
709 1 0.324424 0.604948 0.785316
710 3 0.342799 0.614449 0.805744
711 4 0.313543 0.593509 0.790865
712 1 0.310719 0.632024 0.809311
713 3 0.298692 0.616001 0.824478
714 4 0.289247 0.639345 0.806515
715 1 0.317512 0.625628 0.84889
716 3 0.290205 0.641436 0.851429
717 4 0.339189 0.627969 0.857567
718 1 0.267981 0.630733 0.87462
719 3 0.25609 0.651188 0.878251
720 4 0.262471 0.622613 0.887302
721 1 0.298127 0.657836 0.891276
722 3 0.331302 0.665023 0.879108
723 4 0.313833 0.655656 0.904238
724 1 0.30805 0.680903 0.860919
725 3 0.324373 0.700649 0.860309
726 4 0.28704 0.685622 0.8531
727 1 0.347316 0.697796 0.88651
728 3 0.359258 0.696505 0.911286
729 4 0.333081 0.708589 0.891373
730 1 0.379636 0.673887 0.907387
731 3 0.403503 0.691292 0.910172
732 4 0.392006 0.663408 0.900017
733 1 0.4182 0.685281 0.937187
734 3 0.457774 0.684411 0.944128
735 4 0.406634 0.688511 0.951423
736 1 0.460956 0.659684 0.9398
737 3 0.439809 0.644253 0.927632
738 4 0.463317 0.656329 0.955547
739 1 0.477552 0.632464 0.917349
740 3 0.462752 0.619132 0.935451
741 4 0.502822 0.628911 0.916331
742 1 0.432948 0.607576 0.91631
743 3 0.441657 0.597761 0.894158
744 4 0.408037 0.610797 0.912228
745 1 0.454625 0.576435 0.906541
746 3 0.431802 0.558851 0.911168
747 4 0.474113 0.570371 0.914799
748 1 0.406052 0.561417 0.886263
749 3 0.436182 0.548919 0.877715
750 4 0.390996 0.567858 0.875937
751 1 0.407626 0.531855 0.866607
752 3 0.3789 0.535201 0.848633
753 4 0.400594 0.52073 0.875166
754 1 0.403554 0.523987 0.827274
755 3 0.427216 0.506474 0.8251
756 4 0.414966 0.533102 0.817387
757 1 0.394161 0.493644 0.810521
758 3 0.364785 0.498919 0.793543
759 4 0.385487 0.484699 0.821779
760 1 0.377086 0.480985 0.774358
761 3 0.35505 0.465724 0.786323
762 4 0.392827 0.473449 0.764782
763 1 0.314637 0.471448 0.772623
764 3 0.302695 0.473691 0.74835
765 4 0.297118 0.479567 0.779896
766 1 0.285911 0.450248 0.746562
767 3 0.255439 0.440935 0.759887
768 4 0.296741 0.438261 0.742748
769 1 0.22105 0.454366 0.747729
770 3 0.202538 0.436862 0.756834
771 4 0.209946 0.462997 0.737189
772 1 0.203256 0.424876 0.730794
773 3 0.185052 0.413141 0.748972
774 4 0.215643 0.419026 0.718336
775 1 0.224968 0.405209 0.761451
776 3 0.236037 0.407022 0.78612
777 4 0.244986 0.396668 0.759191
778 1 0.226422 0.43156 0.787223
779 3 0.2494 0.432412 0.808411
780 4 0.20637 0.429837 0.797549
781 1 0.28846 0.425064 0.796478
782 3 0.301737 0.443653 0.786752
783 4 0.301498 0.41393 0.791904
784 1 0.335682 0.446489 0.807479
785 3 0.365828 0.433121 0.814056
786 4 0.329574 0.453756 0.820815
787 1 0.400286 0.448265 0.805133
788 3 0.395256 0.456824 0.82826
789 4 0.413529 0.456106 0.794636
790 1 0.439193 0.451396 0.837407
791 3 0.444616 0.470946 0.827317
792 4 0.463522 0.446471 0.838639
793 1 0.434368 0.483309 0.851975
794 3 0.47531 0.483004 0.852929
795 4 0.424428 0.485309 0.866929
796 1 0.480101 0.50624 0.843384
797 3 0.461503 0.525305 0.846373
798 4 0.487407 0.506698 0.82766
799 1 0.494884 0.533676 0.865172
800 3 0.506158 0.543689 0.843502
801 4 0.516116 0.534466 0.874813
802 1 0.478031 0.56383 0.849297
803 3 0.454831 0.571869 0.868225
804 4 0.459536 0.562377 0.837707
805 1 0.478886 0.593177 0.870164
806 3 0.483318 0.611757 0.857952
807 4 0.501453 0.594953 0.87823
808 1 0.440271 0.619599 0.862387
809 3 0.449424 0.630275 0.884046
810 4 0.414316 0.619841 0.863533
811 1 0.466773 0.651206 0.870346
812 3 0.438081 0.663838 0.860073
813 4 0.489152 0.65344 0.86274
814 1 0.442067 0.681764 0.880158
815 3 0.468398 0.688636 0.862248
816 4 0.449629 0.68773 0.894244
817 1 0.436558 0.700721 0.846309
818 3 0.442067 0.719625 0.857835
819 4 0.414402 0.702659 0.837996
820 1 0.476833 0.726641 0.839518
821 3 0.498203 0.72473 0.817612
822 4 0.498562 0.725654 0.848772
823 1 0.478886 0.745122 0.805519
824 3 0.504756 0.756579 0.819744
825 4 0.45762 0.750748 0.799038
826 1 0.519777 0.770522 0.797185
827 3 0.524003 0.786751 0.813424
828 4 0.526347 0.774998 0.782285
829 1 0.478082 0.792906 0.81306
830 3 0.49141 0.799464 0.836111
831 4 0.452504 0.793633 0.809568
832 1 0.476269 0.77917 0.850454
833 3 0.507955 0.786419 0.864422
834 4 0.468159 0.766448 0.854
835 1 0.540565 0.77429 0.848087
836 3 0.562619 0.790089 0.858938
837 4 0.552097 0.767983 0.835436
838 1 0.549308 0.807494 0.838778
839 3 0.552816 0.821759 0.858049
840 4 0.53983 0.814035 0.825057
841 1 0.510111 0.816313 0.869585
842 3 0.527134 0.819391 0.892765
843 4 0.48484 0.812904 0.870549
844 1 0.542208 0.796423 0.89585
845 3 0.57451 0.805377 0.907472
846 4 0.546725 0.782894 0.894501
847 1 0.594186 0.813496 0.882396
848 3 0.605666 0.832678 0.891255
849 4 0.60416 0.812725 0.867304
850 1 0.564621 0.843498 0.886424
851 3 0.578377 0.852712 0.907933
852 4 0.541694 0.847356 0.880061
853 1 0.545801 0.842161 0.92519
854 3 0.569856 0.842269 0.94581
855 4 0.524739 0.835468 0.930781
856 1 0.603356 0.828237 0.93438
857 3 0.642468 0.83371 0.930042
858 4 0.610303 0.8153 0.930738
859 1 0.631912 0.856525 0.920209
860 3 0.634221 0.877922 0.918688
861 4 0.636907 0.855314 0.903991
862 1 0.594117 0.881915 0.934295
863 3 0.617334 0.899688 0.933416
864 4 0.575691 0.880309 0.945638
865 1 0.637027 0.89557 0.959981
866 3 0.669723 0.904856 0.94928
867 4 0.641578 0.891192 0.975277
868 1 0.687876 0.883575 0.939136
869 3 0.706576 0.897894 0.92384
870 4 0.690442 0.870709 0.932934
871 1 0.667293 0.902954 0.907955
872 3 0.670322 0.924351 0.908137
873 4 0.650099 0.898414 0.896718
874 1 0.63689 0.927922 0.928564
875 3 0.660073 0.945336 0.933052
876 4 0.620534 0.926379 0.941096
877 1 0.695455 0.932031 0.945392
878 3 0.726577 0.942609 0.934327
879 4 0.706439 0.922754 0.955343
880 1 0.723258 0.931197 0.908694
881 3 0.72863 0.950594 0.89811
882 4 0.722591 0.920718 0.897682
883 1 0.682264 0.954757 0.894061
884 3 0.694908 0.975221 0.894608
885 4 0.65607 0.954487 0.895283
886 1 0.704506 0.974844 0.923744
887 3 0.742112 0.982102 0.918141
888 4 0.693813 0.974764 0.938729
889 1 0.764714 0.966205 0.936073
890 3 0.799445 0.963405 0.922447
891 4 0.770018 0.956291 0.947095
892 1 0.777717 0.961252 0.896493
893 3 0.761634 0.954326 0.874245
894 4 0.788564 0.948746 0.896611
895 1 0.7397 0.975078 0.867261
896 3 0.77551 0.972198 0.854792
897 4 0.731231 0.987979 0.868803
898 1 0.754979 0.969757 0.827756
899 3 0.756005 0.989944 0.818341
900 4 0.738502 0.963235 0.817537
901 1 0.79835 0.986274 0.804469
902 3 0.815768 0.968322 0.795739
903 4 0.816418 0.992752 0.813488
904 1 0.824562 0.976468 0.769227
905 3 0.833031 0.994223 0.756106
906 5 0.677458 0.998206 0.838405
907 1 0.880954 0.393394 0.0974228
908 3 0.854349 0.402383 0.080991
909 4 0.867763 0.385346 0.10791
910 1 0.851184 0.423503 0.0959553
911 3 0.831371 0.431891 0.115868
912 5 0.701412 0.414021 0.109099
913 1 0.791917 0.417797 0.112473
914 3 0.799685 0.400356 0.126987